   4   4   1   0
  0.2623188E+02  0.4200671E-09  0.4200671E-09  0.6866278E-09  0.5000000E-15
  1.000000000000000E-004
  CAR 
 ZnS                                     
     10.84670316    -13.18533469 3001      0.86541242      1.00000000
    -13.185  0.0000E+00  0.0000E+00
    -13.177  0.0000E+00  0.0000E+00
    -13.169  0.0000E+00  0.0000E+00
    -13.161  0.0000E+00  0.0000E+00
    -13.153  0.0000E+00  0.0000E+00
    -13.145  0.0000E+00  0.0000E+00
    -13.137  0.0000E+00  0.0000E+00
    -13.129  0.0000E+00  0.0000E+00
    -13.121  0.0000E+00  0.0000E+00
    -13.113  0.0000E+00  0.0000E+00
    -13.105  0.0000E+00  0.0000E+00
    -13.097  0.0000E+00  0.0000E+00
    -13.089  0.0000E+00  0.0000E+00
    -13.081  0.0000E+00  0.0000E+00
    -13.073  0.0000E+00  0.0000E+00
    -13.065  0.0000E+00  0.0000E+00
    -13.057  0.0000E+00  0.0000E+00
    -13.049  0.0000E+00  0.0000E+00
    -13.041  0.0000E+00  0.0000E+00
    -13.033  0.0000E+00  0.0000E+00
    -13.025  0.0000E+00  0.0000E+00
    -13.017  0.0000E+00  0.0000E+00
    -13.009  0.0000E+00  0.0000E+00
    -13.001  0.0000E+00  0.0000E+00
    -12.993  0.0000E+00  0.0000E+00
    -12.985  0.0000E+00  0.0000E+00
    -12.977  0.0000E+00  0.0000E+00
    -12.969  0.0000E+00  0.0000E+00
    -12.961  0.0000E+00  0.0000E+00
    -12.953  0.0000E+00  0.0000E+00
    -12.945  0.0000E+00  0.0000E+00
    -12.937  0.0000E+00  0.0000E+00
    -12.929  0.0000E+00  0.0000E+00
    -12.921  0.0000E+00  0.0000E+00
    -12.913  0.0000E+00  0.0000E+00
    -12.905  0.0000E+00  0.0000E+00
    -12.897  0.0000E+00  0.0000E+00
    -12.889  0.0000E+00  0.0000E+00
    -12.881  0.0000E+00  0.0000E+00
    -12.873  0.0000E+00  0.0000E+00
    -12.865  0.0000E+00  0.0000E+00
    -12.857  0.0000E+00  0.0000E+00
    -12.849  0.0000E+00  0.0000E+00
    -12.841  0.0000E+00  0.0000E+00
    -12.833  0.0000E+00  0.0000E+00
    -12.825  0.0000E+00  0.0000E+00
    -12.817  0.0000E+00  0.0000E+00
    -12.809  0.0000E+00  0.0000E+00
    -12.801  0.0000E+00  0.0000E+00
    -12.793  0.0000E+00  0.0000E+00
    -12.785  0.0000E+00  0.0000E+00
    -12.777  0.0000E+00  0.0000E+00
    -12.769  0.0000E+00  0.0000E+00
    -12.761  0.0000E+00  0.0000E+00
    -12.753  0.0000E+00  0.0000E+00
    -12.745  0.0000E+00  0.0000E+00
    -12.737  0.0000E+00  0.0000E+00
    -12.729  0.0000E+00  0.0000E+00
    -12.721  0.0000E+00  0.0000E+00
    -12.713  0.0000E+00  0.0000E+00
    -12.705  0.0000E+00  0.0000E+00
    -12.697  0.0000E+00  0.0000E+00
    -12.689  0.0000E+00  0.0000E+00
    -12.681  0.0000E+00  0.0000E+00
    -12.673  0.0000E+00  0.0000E+00
    -12.665  0.0000E+00  0.0000E+00
    -12.657  0.0000E+00  0.0000E+00
    -12.649  0.0000E+00  0.0000E+00
    -12.641  0.0000E+00  0.0000E+00
    -12.633  0.0000E+00  0.0000E+00
    -12.625  0.0000E+00  0.0000E+00
    -12.617  0.0000E+00  0.0000E+00
    -12.609  0.0000E+00  0.0000E+00
    -12.601  0.0000E+00  0.0000E+00
    -12.593  0.0000E+00  0.0000E+00
    -12.585  0.0000E+00  0.0000E+00
    -12.577  0.0000E+00  0.0000E+00
    -12.569  0.0000E+00  0.0000E+00
    -12.561  0.0000E+00  0.0000E+00
    -12.552  0.0000E+00  0.0000E+00
    -12.544  0.0000E+00  0.0000E+00
    -12.536  0.0000E+00  0.0000E+00
    -12.528  0.0000E+00  0.0000E+00
    -12.520  0.0000E+00  0.0000E+00
    -12.512  0.0000E+00  0.0000E+00
    -12.504  0.0000E+00  0.0000E+00
    -12.496  0.0000E+00  0.0000E+00
    -12.488  0.0000E+00  0.0000E+00
    -12.480  0.0000E+00  0.0000E+00
    -12.472  0.0000E+00  0.0000E+00
    -12.464  0.0000E+00  0.0000E+00
    -12.456  0.0000E+00  0.0000E+00
    -12.448  0.0000E+00  0.0000E+00
    -12.440  0.0000E+00  0.0000E+00
    -12.432  0.0000E+00  0.0000E+00
    -12.424  0.0000E+00  0.0000E+00
    -12.416  0.0000E+00  0.0000E+00
    -12.408  0.0000E+00  0.0000E+00
    -12.400  0.0000E+00  0.0000E+00
    -12.392  0.0000E+00  0.0000E+00
    -12.384  0.0000E+00  0.0000E+00
    -12.376  0.0000E+00  0.0000E+00
    -12.368  0.0000E+00  0.0000E+00
    -12.360  0.0000E+00  0.0000E+00
    -12.352  0.0000E+00  0.0000E+00
    -12.344  0.0000E+00  0.0000E+00
    -12.336  0.0000E+00  0.0000E+00
    -12.328  0.0000E+00  0.0000E+00
    -12.320  0.0000E+00  0.0000E+00
    -12.312  0.0000E+00  0.0000E+00
    -12.304  0.0000E+00  0.0000E+00
    -12.296  0.0000E+00  0.0000E+00
    -12.288  0.0000E+00  0.0000E+00
    -12.280  0.0000E+00  0.0000E+00
    -12.272  0.0000E+00  0.0000E+00
    -12.264  0.0000E+00  0.0000E+00
    -12.256  0.0000E+00  0.0000E+00
    -12.248  0.0000E+00  0.0000E+00
    -12.240  0.0000E+00  0.0000E+00
    -12.232  0.0000E+00  0.0000E+00
    -12.224  0.0000E+00  0.0000E+00
    -12.216  0.0000E+00  0.0000E+00
    -12.208  0.0000E+00  0.0000E+00
    -12.200  0.0000E+00  0.0000E+00
    -12.192  0.0000E+00  0.0000E+00
    -12.184  0.0000E+00  0.0000E+00
    -12.176  0.0000E+00  0.0000E+00
    -12.168  0.0000E+00  0.0000E+00
    -12.160  0.0000E+00  0.0000E+00
    -12.152  0.0000E+00  0.0000E+00
    -12.144  0.0000E+00  0.0000E+00
    -12.136  0.0000E+00  0.0000E+00
    -12.128  0.0000E+00  0.0000E+00
    -12.120  0.0000E+00  0.0000E+00
    -12.112  0.0000E+00  0.0000E+00
    -12.104  0.0000E+00  0.0000E+00
    -12.096  0.0000E+00  0.0000E+00
    -12.088  0.0000E+00  0.0000E+00
    -12.080  0.0000E+00  0.0000E+00
    -12.072  0.0000E+00  0.0000E+00
    -12.064  0.0000E+00  0.0000E+00
    -12.056  0.0000E+00  0.0000E+00
    -12.048  0.0000E+00  0.0000E+00
    -12.040  0.0000E+00  0.0000E+00
    -12.032  0.0000E+00  0.0000E+00
    -12.024  0.0000E+00  0.0000E+00
    -12.016  0.0000E+00  0.0000E+00
    -12.008  0.0000E+00  0.0000E+00
    -12.000  0.0000E+00  0.0000E+00
    -11.992  0.0000E+00  0.0000E+00
    -11.984  0.0000E+00  0.0000E+00
    -11.976  0.0000E+00  0.0000E+00
    -11.968  0.0000E+00  0.0000E+00
    -11.960  0.0000E+00  0.0000E+00
    -11.952  0.0000E+00  0.0000E+00
    -11.944  0.0000E+00  0.0000E+00
    -11.936  0.0000E+00  0.0000E+00
    -11.928  0.0000E+00  0.0000E+00
    -11.920  0.0000E+00  0.0000E+00
    -11.912  0.0000E+00  0.0000E+00
    -11.904  0.0000E+00  0.0000E+00
    -11.896  0.0000E+00  0.0000E+00
    -11.888  0.0000E+00  0.0000E+00
    -11.880  0.0000E+00  0.0000E+00
    -11.872  0.0000E+00  0.0000E+00
    -11.864  0.0000E+00  0.0000E+00
    -11.856  0.0000E+00  0.0000E+00
    -11.848  0.0000E+00  0.0000E+00
    -11.840  0.0000E+00  0.0000E+00
    -11.832  0.0000E+00  0.0000E+00
    -11.824  0.0000E+00  0.0000E+00
    -11.816  0.0000E+00  0.0000E+00
    -11.807  0.0000E+00  0.0000E+00
    -11.799  0.0000E+00  0.0000E+00
    -11.791  0.0000E+00  0.0000E+00
    -11.783  0.0000E+00  0.0000E+00
    -11.775  0.0000E+00  0.0000E+00
    -11.767  0.0000E+00  0.0000E+00
    -11.759  0.0000E+00  0.0000E+00
    -11.751  0.0000E+00  0.0000E+00
    -11.743  0.0000E+00  0.0000E+00
    -11.735  0.0000E+00  0.0000E+00
    -11.727  0.0000E+00  0.0000E+00
    -11.719  0.0000E+00  0.0000E+00
    -11.711  0.0000E+00  0.0000E+00
    -11.703  0.0000E+00  0.0000E+00
    -11.695  0.0000E+00  0.0000E+00
    -11.687  0.0000E+00  0.0000E+00
    -11.679  0.0000E+00  0.0000E+00
    -11.671  0.0000E+00  0.0000E+00
    -11.663  0.0000E+00  0.0000E+00
    -11.655  0.0000E+00  0.0000E+00
    -11.647  0.0000E+00  0.0000E+00
    -11.639  0.0000E+00  0.0000E+00
    -11.631  0.0000E+00  0.0000E+00
    -11.623  0.0000E+00  0.0000E+00
    -11.615  0.0000E+00  0.0000E+00
    -11.607  0.0000E+00  0.0000E+00
    -11.599  0.0000E+00  0.0000E+00
    -11.591  0.0000E+00  0.0000E+00
    -11.583  0.0000E+00  0.0000E+00
    -11.575  0.0000E+00  0.0000E+00
    -11.567  0.0000E+00  0.0000E+00
    -11.559  0.0000E+00  0.0000E+00
    -11.551  0.0000E+00  0.0000E+00
    -11.543  0.0000E+00  0.0000E+00
    -11.535  0.0000E+00  0.0000E+00
    -11.527  0.0000E+00  0.0000E+00
    -11.519  0.0000E+00  0.0000E+00
    -11.511  0.0000E+00  0.0000E+00
    -11.503  0.0000E+00  0.0000E+00
    -11.495  0.0000E+00  0.0000E+00
    -11.487  0.0000E+00  0.0000E+00
    -11.479  0.0000E+00  0.0000E+00
    -11.471  0.0000E+00  0.0000E+00
    -11.463  0.0000E+00  0.0000E+00
    -11.455  0.0000E+00  0.0000E+00
    -11.447  0.0000E+00  0.0000E+00
    -11.439  0.0000E+00  0.0000E+00
    -11.431  0.0000E+00  0.0000E+00
    -11.423  0.0000E+00  0.0000E+00
    -11.415  0.0000E+00  0.0000E+00
    -11.407  0.0000E+00  0.0000E+00
    -11.399  0.0000E+00  0.0000E+00
    -11.391  0.0000E+00  0.0000E+00
    -11.383  0.0000E+00  0.0000E+00
    -11.375  0.0000E+00  0.0000E+00
    -11.367  0.0000E+00  0.0000E+00
    -11.359  0.0000E+00  0.0000E+00
    -11.351  0.0000E+00  0.0000E+00
    -11.343  0.0000E+00  0.0000E+00
    -11.335  0.0000E+00  0.0000E+00
    -11.327  0.0000E+00  0.0000E+00
    -11.319  0.0000E+00  0.0000E+00
    -11.311  0.0000E+00  0.0000E+00
    -11.303  0.0000E+00  0.0000E+00
    -11.295  0.0000E+00  0.0000E+00
    -11.287  0.0000E+00  0.0000E+00
    -11.279  0.0000E+00  0.0000E+00
    -11.271  0.0000E+00  0.0000E+00
    -11.263  0.0000E+00  0.0000E+00
    -11.255  0.0000E+00  0.0000E+00
    -11.247  0.0000E+00  0.0000E+00
    -11.239  0.0000E+00  0.0000E+00
    -11.231  0.0000E+00  0.0000E+00
    -11.223  0.0000E+00  0.0000E+00
    -11.215  0.0000E+00  0.0000E+00
    -11.207  0.0000E+00  0.0000E+00
    -11.199  0.0000E+00  0.0000E+00
    -11.191  0.0000E+00  0.0000E+00
    -11.183  0.1201E-01  0.1069E-04
    -11.175  0.1833E+00  0.6759E-03
    -11.167  0.4597E+00  0.3200E-02
    -11.159  0.7938E+00  0.8241E-02
    -11.151  0.7982E+00  0.1461E-01
    -11.143  0.9311E+00  0.2155E-01
    -11.135  0.1042E+01  0.2947E-01
    -11.127  0.1152E+01  0.3822E-01
    -11.119  0.1293E+01  0.4800E-01
    -11.111  0.1432E+01  0.5892E-01
    -11.103  0.1550E+01  0.7090E-01
    -11.095  0.1640E+01  0.8368E-01
    -11.087  0.1741E+01  0.9723E-01
    -11.079  0.1848E+01  0.1116E+00
    -11.071  0.1963E+01  0.1269E+00
    -11.063  0.2079E+01  0.1430E+00
    -11.054  0.2193E+01  0.1602E+00
    -11.046  0.2317E+01  0.1782E+00
    -11.038  0.2447E+01  0.1973E+00
    -11.030  0.2581E+01  0.2174E+00
    -11.022  0.2718E+01  0.2386E+00
    -11.014  0.2977E+01  0.2614E+00
    -11.006  0.3224E+01  0.2862E+00
    -10.998  0.3214E+01  0.3126E+00
    -10.990  0.3316E+01  0.3387E+00
    -10.982  0.3416E+01  0.3657E+00
    -10.974  0.3514E+01  0.3934E+00
    -10.966  0.3621E+01  0.4220E+00
    -10.958  0.3955E+01  0.4523E+00
    -10.950  0.4353E+01  0.4855E+00
    -10.942  0.4402E+01  0.5203E+00
    -10.934  0.4641E+01  0.5565E+00
    -10.926  0.4927E+01  0.5948E+00
    -10.918  0.5233E+01  0.6355E+00
    -10.910  0.5544E+01  0.6786E+00
    -10.902  0.5874E+01  0.7243E+00
    -10.894  0.6241E+01  0.7729E+00
    -10.886  0.6624E+01  0.8244E+00
    -10.878  0.7029E+01  0.8790E+00
    -10.870  0.7457E+01  0.9370E+00
    -10.862  0.7947E+01  0.9987E+00
    -10.854  0.8528E+01  0.1065E+01
    -10.846  0.9269E+01  0.1136E+01
    -10.838  0.1021E+02  0.1214E+01
    -10.830  0.1152E+02  0.1300E+01
    -10.822  0.1386E+02  0.1400E+01
    -10.814  0.1518E+02  0.1517E+01
    -10.806  0.1598E+02  0.1642E+01
    -10.798  0.1663E+02  0.1773E+01
    -10.790  0.1734E+02  0.1910E+01
    -10.782  0.1763E+02  0.2049E+01
    -10.774  0.1819E+02  0.2193E+01
    -10.766  0.1876E+02  0.2341E+01
    -10.758  0.1868E+02  0.2493E+01
    -10.750  0.1874E+02  0.2641E+01
    -10.742  0.2077E+02  0.2803E+01
    -10.734  0.2044E+02  0.2967E+01
    -10.726  0.2263E+02  0.3140E+01
    -10.718  0.2671E+02  0.3330E+01
    -10.710  0.3353E+02  0.3582E+01
    -10.702  0.3940E+02  0.3858E+01
    -10.694  0.0000E+00  0.4000E+01
    -10.686  0.0000E+00  0.4000E+01
    -10.678  0.0000E+00  0.4000E+01
    -10.670  0.0000E+00  0.4000E+01
    -10.662  0.0000E+00  0.4000E+01
    -10.654  0.0000E+00  0.4000E+01
    -10.646  0.0000E+00  0.4000E+01
    -10.638  0.0000E+00  0.4000E+01
    -10.630  0.0000E+00  0.4000E+01
    -10.622  0.0000E+00  0.4000E+01
    -10.614  0.0000E+00  0.4000E+01
    -10.606  0.0000E+00  0.4000E+01
    -10.598  0.0000E+00  0.4000E+01
    -10.590  0.0000E+00  0.4000E+01
    -10.582  0.0000E+00  0.4000E+01
    -10.574  0.0000E+00  0.4000E+01
    -10.566  0.0000E+00  0.4000E+01
    -10.558  0.0000E+00  0.4000E+01
    -10.550  0.0000E+00  0.4000E+01
    -10.542  0.0000E+00  0.4000E+01
    -10.534  0.0000E+00  0.4000E+01
    -10.526  0.0000E+00  0.4000E+01
    -10.518  0.0000E+00  0.4000E+01
    -10.510  0.0000E+00  0.4000E+01
    -10.502  0.0000E+00  0.4000E+01
    -10.494  0.0000E+00  0.4000E+01
    -10.486  0.0000E+00  0.4000E+01
    -10.478  0.0000E+00  0.4000E+01
    -10.470  0.0000E+00  0.4000E+01
    -10.462  0.0000E+00  0.4000E+01
    -10.454  0.0000E+00  0.4000E+01
    -10.446  0.0000E+00  0.4000E+01
    -10.438  0.0000E+00  0.4000E+01
    -10.430  0.0000E+00  0.4000E+01
    -10.422  0.0000E+00  0.4000E+01
    -10.414  0.0000E+00  0.4000E+01
    -10.406  0.0000E+00  0.4000E+01
    -10.398  0.0000E+00  0.4000E+01
    -10.390  0.0000E+00  0.4000E+01
    -10.382  0.0000E+00  0.4000E+01
    -10.374  0.0000E+00  0.4000E+01
    -10.366  0.0000E+00  0.4000E+01
    -10.358  0.0000E+00  0.4000E+01
    -10.350  0.0000E+00  0.4000E+01
    -10.342  0.0000E+00  0.4000E+01
    -10.334  0.0000E+00  0.4000E+01
    -10.326  0.0000E+00  0.4000E+01
    -10.318  0.0000E+00  0.4000E+01
    -10.310  0.0000E+00  0.4000E+01
    -10.301  0.0000E+00  0.4000E+01
    -10.293  0.0000E+00  0.4000E+01
    -10.285  0.0000E+00  0.4000E+01
    -10.277  0.0000E+00  0.4000E+01
    -10.269  0.0000E+00  0.4000E+01
    -10.261  0.0000E+00  0.4000E+01
    -10.253  0.0000E+00  0.4000E+01
    -10.245  0.0000E+00  0.4000E+01
    -10.237  0.0000E+00  0.4000E+01
    -10.229  0.0000E+00  0.4000E+01
    -10.221  0.0000E+00  0.4000E+01
    -10.213  0.0000E+00  0.4000E+01
    -10.205  0.0000E+00  0.4000E+01
    -10.197  0.0000E+00  0.4000E+01
    -10.189  0.0000E+00  0.4000E+01
    -10.181  0.0000E+00  0.4000E+01
    -10.173  0.0000E+00  0.4000E+01
    -10.165  0.0000E+00  0.4000E+01
    -10.157  0.0000E+00  0.4000E+01
    -10.149  0.0000E+00  0.4000E+01
    -10.141  0.0000E+00  0.4000E+01
    -10.133  0.0000E+00  0.4000E+01
    -10.125  0.0000E+00  0.4000E+01
    -10.117  0.0000E+00  0.4000E+01
    -10.109  0.0000E+00  0.4000E+01
    -10.101  0.0000E+00  0.4000E+01
    -10.093  0.0000E+00  0.4000E+01
    -10.085  0.0000E+00  0.4000E+01
    -10.077  0.0000E+00  0.4000E+01
    -10.069  0.0000E+00  0.4000E+01
    -10.061  0.0000E+00  0.4000E+01
    -10.053  0.0000E+00  0.4000E+01
    -10.045  0.0000E+00  0.4000E+01
    -10.037  0.0000E+00  0.4000E+01
    -10.029  0.0000E+00  0.4000E+01
    -10.021  0.0000E+00  0.4000E+01
    -10.013  0.0000E+00  0.4000E+01
    -10.005  0.0000E+00  0.4000E+01
     -9.997  0.0000E+00  0.4000E+01
     -9.989  0.0000E+00  0.4000E+01
     -9.981  0.0000E+00  0.4000E+01
     -9.973  0.0000E+00  0.4000E+01
     -9.965  0.0000E+00  0.4000E+01
     -9.957  0.0000E+00  0.4000E+01
     -9.949  0.0000E+00  0.4000E+01
     -9.941  0.0000E+00  0.4000E+01
     -9.933  0.0000E+00  0.4000E+01
     -9.925  0.0000E+00  0.4000E+01
     -9.917  0.0000E+00  0.4000E+01
     -9.909  0.0000E+00  0.4000E+01
     -9.901  0.0000E+00  0.4000E+01
     -9.893  0.0000E+00  0.4000E+01
     -9.885  0.0000E+00  0.4000E+01
     -9.877  0.0000E+00  0.4000E+01
     -9.869  0.0000E+00  0.4000E+01
     -9.861  0.0000E+00  0.4000E+01
     -9.853  0.0000E+00  0.4000E+01
     -9.845  0.0000E+00  0.4000E+01
     -9.837  0.0000E+00  0.4000E+01
     -9.829  0.0000E+00  0.4000E+01
     -9.821  0.0000E+00  0.4000E+01
     -9.813  0.0000E+00  0.4000E+01
     -9.805  0.0000E+00  0.4000E+01
     -9.797  0.0000E+00  0.4000E+01
     -9.789  0.0000E+00  0.4000E+01
     -9.781  0.0000E+00  0.4000E+01
     -9.773  0.0000E+00  0.4000E+01
     -9.765  0.0000E+00  0.4000E+01
     -9.757  0.0000E+00  0.4000E+01
     -9.749  0.0000E+00  0.4000E+01
     -9.741  0.0000E+00  0.4000E+01
     -9.733  0.0000E+00  0.4000E+01
     -9.725  0.0000E+00  0.4000E+01
     -9.717  0.0000E+00  0.4000E+01
     -9.709  0.0000E+00  0.4000E+01
     -9.701  0.0000E+00  0.4000E+01
     -9.693  0.0000E+00  0.4000E+01
     -9.685  0.0000E+00  0.4000E+01
     -9.677  0.0000E+00  0.4000E+01
     -9.669  0.0000E+00  0.4000E+01
     -9.661  0.0000E+00  0.4000E+01
     -9.653  0.0000E+00  0.4000E+01
     -9.645  0.0000E+00  0.4000E+01
     -9.637  0.0000E+00  0.4000E+01
     -9.629  0.0000E+00  0.4000E+01
     -9.621  0.0000E+00  0.4000E+01
     -9.613  0.0000E+00  0.4000E+01
     -9.605  0.0000E+00  0.4000E+01
     -9.597  0.0000E+00  0.4000E+01
     -9.589  0.0000E+00  0.4000E+01
     -9.581  0.0000E+00  0.4000E+01
     -9.573  0.0000E+00  0.4000E+01
     -9.565  0.0000E+00  0.4000E+01
     -9.556  0.0000E+00  0.4000E+01
     -9.548  0.0000E+00  0.4000E+01
     -9.540  0.0000E+00  0.4000E+01
     -9.532  0.0000E+00  0.4000E+01
     -9.524  0.0000E+00  0.4000E+01
     -9.516  0.0000E+00  0.4000E+01
     -9.508  0.0000E+00  0.4000E+01
     -9.500  0.0000E+00  0.4000E+01
     -9.492  0.0000E+00  0.4000E+01
     -9.484  0.0000E+00  0.4000E+01
     -9.476  0.0000E+00  0.4000E+01
     -9.468  0.0000E+00  0.4000E+01
     -9.460  0.0000E+00  0.4000E+01
     -9.452  0.0000E+00  0.4000E+01
     -9.444  0.0000E+00  0.4000E+01
     -9.436  0.0000E+00  0.4000E+01
     -9.428  0.0000E+00  0.4000E+01
     -9.420  0.0000E+00  0.4000E+01
     -9.412  0.0000E+00  0.4000E+01
     -9.404  0.0000E+00  0.4000E+01
     -9.396  0.0000E+00  0.4000E+01
     -9.388  0.0000E+00  0.4000E+01
     -9.380  0.0000E+00  0.4000E+01
     -9.372  0.0000E+00  0.4000E+01
     -9.364  0.0000E+00  0.4000E+01
     -9.356  0.0000E+00  0.4000E+01
     -9.348  0.0000E+00  0.4000E+01
     -9.340  0.0000E+00  0.4000E+01
     -9.332  0.0000E+00  0.4000E+01
     -9.324  0.0000E+00  0.4000E+01
     -9.316  0.0000E+00  0.4000E+01
     -9.308  0.0000E+00  0.4000E+01
     -9.300  0.0000E+00  0.4000E+01
     -9.292  0.0000E+00  0.4000E+01
     -9.284  0.0000E+00  0.4000E+01
     -9.276  0.0000E+00  0.4000E+01
     -9.268  0.0000E+00  0.4000E+01
     -9.260  0.0000E+00  0.4000E+01
     -9.252  0.0000E+00  0.4000E+01
     -9.244  0.0000E+00  0.4000E+01
     -9.236  0.0000E+00  0.4000E+01
     -9.228  0.0000E+00  0.4000E+01
     -9.220  0.0000E+00  0.4000E+01
     -9.212  0.0000E+00  0.4000E+01
     -9.204  0.0000E+00  0.4000E+01
     -9.196  0.0000E+00  0.4000E+01
     -9.188  0.0000E+00  0.4000E+01
     -9.180  0.0000E+00  0.4000E+01
     -9.172  0.0000E+00  0.4000E+01
     -9.164  0.0000E+00  0.4000E+01
     -9.156  0.0000E+00  0.4000E+01
     -9.148  0.0000E+00  0.4000E+01
     -9.140  0.0000E+00  0.4000E+01
     -9.132  0.0000E+00  0.4000E+01
     -9.124  0.0000E+00  0.4000E+01
     -9.116  0.0000E+00  0.4000E+01
     -9.108  0.0000E+00  0.4000E+01
     -9.100  0.0000E+00  0.4000E+01
     -9.092  0.0000E+00  0.4000E+01
     -9.084  0.0000E+00  0.4000E+01
     -9.076  0.0000E+00  0.4000E+01
     -9.068  0.0000E+00  0.4000E+01
     -9.060  0.0000E+00  0.4000E+01
     -9.052  0.0000E+00  0.4000E+01
     -9.044  0.0000E+00  0.4000E+01
     -9.036  0.0000E+00  0.4000E+01
     -9.028  0.0000E+00  0.4000E+01
     -9.020  0.0000E+00  0.4000E+01
     -9.012  0.0000E+00  0.4000E+01
     -9.004  0.0000E+00  0.4000E+01
     -8.996  0.0000E+00  0.4000E+01
     -8.988  0.0000E+00  0.4000E+01
     -8.980  0.0000E+00  0.4000E+01
     -8.972  0.0000E+00  0.4000E+01
     -8.964  0.0000E+00  0.4000E+01
     -8.956  0.0000E+00  0.4000E+01
     -8.948  0.0000E+00  0.4000E+01
     -8.940  0.0000E+00  0.4000E+01
     -8.932  0.0000E+00  0.4000E+01
     -8.924  0.0000E+00  0.4000E+01
     -8.916  0.0000E+00  0.4000E+01
     -8.908  0.0000E+00  0.4000E+01
     -8.900  0.0000E+00  0.4000E+01
     -8.892  0.0000E+00  0.4000E+01
     -8.884  0.0000E+00  0.4000E+01
     -8.876  0.0000E+00  0.4000E+01
     -8.868  0.0000E+00  0.4000E+01
     -8.860  0.0000E+00  0.4000E+01
     -8.852  0.0000E+00  0.4000E+01
     -8.844  0.0000E+00  0.4000E+01
     -8.836  0.0000E+00  0.4000E+01
     -8.828  0.0000E+00  0.4000E+01
     -8.820  0.0000E+00  0.4000E+01
     -8.812  0.0000E+00  0.4000E+01
     -8.803  0.0000E+00  0.4000E+01
     -8.795  0.0000E+00  0.4000E+01
     -8.787  0.0000E+00  0.4000E+01
     -8.779  0.0000E+00  0.4000E+01
     -8.771  0.0000E+00  0.4000E+01
     -8.763  0.0000E+00  0.4000E+01
     -8.755  0.0000E+00  0.4000E+01
     -8.747  0.0000E+00  0.4000E+01
     -8.739  0.0000E+00  0.4000E+01
     -8.731  0.0000E+00  0.4000E+01
     -8.723  0.0000E+00  0.4000E+01
     -8.715  0.0000E+00  0.4000E+01
     -8.707  0.0000E+00  0.4000E+01
     -8.699  0.0000E+00  0.4000E+01
     -8.691  0.0000E+00  0.4000E+01
     -8.683  0.0000E+00  0.4000E+01
     -8.675  0.0000E+00  0.4000E+01
     -8.667  0.0000E+00  0.4000E+01
     -8.659  0.0000E+00  0.4000E+01
     -8.651  0.0000E+00  0.4000E+01
     -8.643  0.0000E+00  0.4000E+01
     -8.635  0.0000E+00  0.4000E+01
     -8.627  0.0000E+00  0.4000E+01
     -8.619  0.0000E+00  0.4000E+01
     -8.611  0.0000E+00  0.4000E+01
     -8.603  0.0000E+00  0.4000E+01
     -8.595  0.0000E+00  0.4000E+01
     -8.587  0.0000E+00  0.4000E+01
     -8.579  0.0000E+00  0.4000E+01
     -8.571  0.0000E+00  0.4000E+01
     -8.563  0.0000E+00  0.4000E+01
     -8.555  0.0000E+00  0.4000E+01
     -8.547  0.0000E+00  0.4000E+01
     -8.539  0.0000E+00  0.4000E+01
     -8.531  0.0000E+00  0.4000E+01
     -8.523  0.0000E+00  0.4000E+01
     -8.515  0.0000E+00  0.4000E+01
     -8.507  0.0000E+00  0.4000E+01
     -8.499  0.0000E+00  0.4000E+01
     -8.491  0.0000E+00  0.4000E+01
     -8.483  0.0000E+00  0.4000E+01
     -8.475  0.0000E+00  0.4000E+01
     -8.467  0.0000E+00  0.4000E+01
     -8.459  0.0000E+00  0.4000E+01
     -8.451  0.0000E+00  0.4000E+01
     -8.443  0.0000E+00  0.4000E+01
     -8.435  0.0000E+00  0.4000E+01
     -8.427  0.0000E+00  0.4000E+01
     -8.419  0.0000E+00  0.4000E+01
     -8.411  0.0000E+00  0.4000E+01
     -8.403  0.0000E+00  0.4000E+01
     -8.395  0.0000E+00  0.4000E+01
     -8.387  0.0000E+00  0.4000E+01
     -8.379  0.0000E+00  0.4000E+01
     -8.371  0.0000E+00  0.4000E+01
     -8.363  0.0000E+00  0.4000E+01
     -8.355  0.0000E+00  0.4000E+01
     -8.347  0.0000E+00  0.4000E+01
     -8.339  0.0000E+00  0.4000E+01
     -8.331  0.0000E+00  0.4000E+01
     -8.323  0.0000E+00  0.4000E+01
     -8.315  0.0000E+00  0.4000E+01
     -8.307  0.0000E+00  0.4000E+01
     -8.299  0.0000E+00  0.4000E+01
     -8.291  0.0000E+00  0.4000E+01
     -8.283  0.0000E+00  0.4000E+01
     -8.275  0.0000E+00  0.4000E+01
     -8.267  0.0000E+00  0.4000E+01
     -8.259  0.0000E+00  0.4000E+01
     -8.251  0.0000E+00  0.4000E+01
     -8.243  0.0000E+00  0.4000E+01
     -8.235  0.0000E+00  0.4000E+01
     -8.227  0.0000E+00  0.4000E+01
     -8.219  0.0000E+00  0.4000E+01
     -8.211  0.0000E+00  0.4000E+01
     -8.203  0.0000E+00  0.4000E+01
     -8.195  0.0000E+00  0.4000E+01
     -8.187  0.0000E+00  0.4000E+01
     -8.179  0.0000E+00  0.4000E+01
     -8.171  0.0000E+00  0.4000E+01
     -8.163  0.0000E+00  0.4000E+01
     -8.155  0.0000E+00  0.4000E+01
     -8.147  0.0000E+00  0.4000E+01
     -8.139  0.0000E+00  0.4000E+01
     -8.131  0.0000E+00  0.4000E+01
     -8.123  0.0000E+00  0.4000E+01
     -8.115  0.0000E+00  0.4000E+01
     -8.107  0.0000E+00  0.4000E+01
     -8.099  0.0000E+00  0.4000E+01
     -8.091  0.0000E+00  0.4000E+01
     -8.083  0.0000E+00  0.4000E+01
     -8.075  0.0000E+00  0.4000E+01
     -8.067  0.0000E+00  0.4000E+01
     -8.058  0.0000E+00  0.4000E+01
     -8.050  0.0000E+00  0.4000E+01
     -8.042  0.0000E+00  0.4000E+01
     -8.034  0.0000E+00  0.4000E+01
     -8.026  0.0000E+00  0.4000E+01
     -8.018  0.0000E+00  0.4000E+01
     -8.010  0.0000E+00  0.4000E+01
     -8.002  0.0000E+00  0.4000E+01
     -7.994  0.0000E+00  0.4000E+01
     -7.986  0.0000E+00  0.4000E+01
     -7.978  0.0000E+00  0.4000E+01
     -7.970  0.0000E+00  0.4000E+01
     -7.962  0.0000E+00  0.4000E+01
     -7.954  0.0000E+00  0.4000E+01
     -7.946  0.0000E+00  0.4000E+01
     -7.938  0.0000E+00  0.4000E+01
     -7.930  0.0000E+00  0.4000E+01
     -7.922  0.0000E+00  0.4000E+01
     -7.914  0.0000E+00  0.4000E+01
     -7.906  0.0000E+00  0.4000E+01
     -7.898  0.0000E+00  0.4000E+01
     -7.890  0.0000E+00  0.4000E+01
     -7.882  0.0000E+00  0.4000E+01
     -7.874  0.0000E+00  0.4000E+01
     -7.866  0.0000E+00  0.4000E+01
     -7.858  0.0000E+00  0.4000E+01
     -7.850  0.0000E+00  0.4000E+01
     -7.842  0.0000E+00  0.4000E+01
     -7.834  0.0000E+00  0.4000E+01
     -7.826  0.0000E+00  0.4000E+01
     -7.818  0.0000E+00  0.4000E+01
     -7.810  0.0000E+00  0.4000E+01
     -7.802  0.0000E+00  0.4000E+01
     -7.794  0.0000E+00  0.4000E+01
     -7.786  0.0000E+00  0.4000E+01
     -7.778  0.0000E+00  0.4000E+01
     -7.770  0.0000E+00  0.4000E+01
     -7.762  0.0000E+00  0.4000E+01
     -7.754  0.0000E+00  0.4000E+01
     -7.746  0.0000E+00  0.4000E+01
     -7.738  0.0000E+00  0.4000E+01
     -7.730  0.0000E+00  0.4000E+01
     -7.722  0.0000E+00  0.4000E+01
     -7.714  0.0000E+00  0.4000E+01
     -7.706  0.0000E+00  0.4000E+01
     -7.698  0.0000E+00  0.4000E+01
     -7.690  0.0000E+00  0.4000E+01
     -7.682  0.0000E+00  0.4000E+01
     -7.674  0.0000E+00  0.4000E+01
     -7.666  0.0000E+00  0.4000E+01
     -7.658  0.0000E+00  0.4000E+01
     -7.650  0.0000E+00  0.4000E+01
     -7.642  0.0000E+00  0.4000E+01
     -7.634  0.0000E+00  0.4000E+01
     -7.626  0.0000E+00  0.4000E+01
     -7.618  0.0000E+00  0.4000E+01
     -7.610  0.0000E+00  0.4000E+01
     -7.602  0.0000E+00  0.4000E+01
     -7.594  0.0000E+00  0.4000E+01
     -7.586  0.0000E+00  0.4000E+01
     -7.578  0.0000E+00  0.4000E+01
     -7.570  0.0000E+00  0.4000E+01
     -7.562  0.0000E+00  0.4000E+01
     -7.554  0.0000E+00  0.4000E+01
     -7.546  0.0000E+00  0.4000E+01
     -7.538  0.0000E+00  0.4000E+01
     -7.530  0.0000E+00  0.4000E+01
     -7.522  0.0000E+00  0.4000E+01
     -7.514  0.0000E+00  0.4000E+01
     -7.506  0.0000E+00  0.4000E+01
     -7.498  0.0000E+00  0.4000E+01
     -7.490  0.0000E+00  0.4000E+01
     -7.482  0.0000E+00  0.4000E+01
     -7.474  0.0000E+00  0.4000E+01
     -7.466  0.0000E+00  0.4000E+01
     -7.458  0.0000E+00  0.4000E+01
     -7.450  0.0000E+00  0.4000E+01
     -7.442  0.0000E+00  0.4000E+01
     -7.434  0.0000E+00  0.4000E+01
     -7.426  0.0000E+00  0.4000E+01
     -7.418  0.0000E+00  0.4000E+01
     -7.410  0.0000E+00  0.4000E+01
     -7.402  0.0000E+00  0.4000E+01
     -7.394  0.0000E+00  0.4000E+01
     -7.386  0.0000E+00  0.4000E+01
     -7.378  0.0000E+00  0.4000E+01
     -7.370  0.0000E+00  0.4000E+01
     -7.362  0.0000E+00  0.4000E+01
     -7.354  0.0000E+00  0.4000E+01
     -7.346  0.0000E+00  0.4000E+01
     -7.338  0.0000E+00  0.4000E+01
     -7.330  0.0000E+00  0.4000E+01
     -7.322  0.0000E+00  0.4000E+01
     -7.314  0.0000E+00  0.4000E+01
     -7.305  0.0000E+00  0.4000E+01
     -7.297  0.0000E+00  0.4000E+01
     -7.289  0.0000E+00  0.4000E+01
     -7.281  0.0000E+00  0.4000E+01
     -7.273  0.0000E+00  0.4000E+01
     -7.265  0.0000E+00  0.4000E+01
     -7.257  0.0000E+00  0.4000E+01
     -7.249  0.0000E+00  0.4000E+01
     -7.241  0.0000E+00  0.4000E+01
     -7.233  0.0000E+00  0.4000E+01
     -7.225  0.0000E+00  0.4000E+01
     -7.217  0.0000E+00  0.4000E+01
     -7.209  0.0000E+00  0.4000E+01
     -7.201  0.0000E+00  0.4000E+01
     -7.193  0.0000E+00  0.4000E+01
     -7.185  0.0000E+00  0.4000E+01
     -7.177  0.0000E+00  0.4000E+01
     -7.169  0.0000E+00  0.4000E+01
     -7.161  0.0000E+00  0.4000E+01
     -7.153  0.0000E+00  0.4000E+01
     -7.145  0.0000E+00  0.4000E+01
     -7.137  0.0000E+00  0.4000E+01
     -7.129  0.0000E+00  0.4000E+01
     -7.121  0.0000E+00  0.4000E+01
     -7.113  0.0000E+00  0.4000E+01
     -7.105  0.0000E+00  0.4000E+01
     -7.097  0.0000E+00  0.4000E+01
     -7.089  0.0000E+00  0.4000E+01
     -7.081  0.0000E+00  0.4000E+01
     -7.073  0.0000E+00  0.4000E+01
     -7.065  0.0000E+00  0.4000E+01
     -7.057  0.0000E+00  0.4000E+01
     -7.049  0.0000E+00  0.4000E+01
     -7.041  0.0000E+00  0.4000E+01
     -7.033  0.0000E+00  0.4000E+01
     -7.025  0.0000E+00  0.4000E+01
     -7.017  0.0000E+00  0.4000E+01
     -7.009  0.0000E+00  0.4000E+01
     -7.001  0.0000E+00  0.4000E+01
     -6.993  0.0000E+00  0.4000E+01
     -6.985  0.0000E+00  0.4000E+01
     -6.977  0.0000E+00  0.4000E+01
     -6.969  0.0000E+00  0.4000E+01
     -6.961  0.0000E+00  0.4000E+01
     -6.953  0.0000E+00  0.4000E+01
     -6.945  0.0000E+00  0.4000E+01
     -6.937  0.0000E+00  0.4000E+01
     -6.929  0.0000E+00  0.4000E+01
     -6.921  0.0000E+00  0.4000E+01
     -6.913  0.0000E+00  0.4000E+01
     -6.905  0.0000E+00  0.4000E+01
     -6.897  0.0000E+00  0.4000E+01
     -6.889  0.0000E+00  0.4000E+01
     -6.881  0.0000E+00  0.4000E+01
     -6.873  0.0000E+00  0.4000E+01
     -6.865  0.0000E+00  0.4000E+01
     -6.857  0.0000E+00  0.4000E+01
     -6.849  0.0000E+00  0.4000E+01
     -6.841  0.0000E+00  0.4000E+01
     -6.833  0.0000E+00  0.4000E+01
     -6.825  0.0000E+00  0.4000E+01
     -6.817  0.0000E+00  0.4000E+01
     -6.809  0.0000E+00  0.4000E+01
     -6.801  0.0000E+00  0.4000E+01
     -6.793  0.0000E+00  0.4000E+01
     -6.785  0.0000E+00  0.4000E+01
     -6.777  0.0000E+00  0.4000E+01
     -6.769  0.0000E+00  0.4000E+01
     -6.761  0.0000E+00  0.4000E+01
     -6.753  0.0000E+00  0.4000E+01
     -6.745  0.0000E+00  0.4000E+01
     -6.737  0.0000E+00  0.4000E+01
     -6.729  0.0000E+00  0.4000E+01
     -6.721  0.0000E+00  0.4000E+01
     -6.713  0.0000E+00  0.4000E+01
     -6.705  0.0000E+00  0.4000E+01
     -6.697  0.2771E+00  0.4000E+01
     -6.689  0.2010E+01  0.4011E+01
     -6.681  0.5281E+01  0.4036E+01
     -6.673  0.9035E+01  0.4096E+01
     -6.665  0.1169E+02  0.4180E+01
     -6.657  0.1463E+02  0.4285E+01
     -6.649  0.1690E+02  0.4413E+01
     -6.641  0.2167E+02  0.4565E+01
     -6.633  0.2567E+02  0.4755E+01
     -6.625  0.3659E+02  0.5005E+01
     -6.617  0.5346E+02  0.5382E+01
     -6.609  0.6640E+02  0.5863E+01
     -6.601  0.5608E+02  0.6380E+01
     -6.593  0.5819E+02  0.6825E+01
     -6.585  0.5472E+02  0.7278E+01
     -6.577  0.4774E+02  0.7685E+01