    2    2    1    1
  0.2365501E+02  0.4059657E-09  0.4059657E-09  0.4059657E-09  0.5000000E-15
  1.000000000000000E-004
  CAR 
 ZnSe                                     
     18   8531     16
 
  0.0000000E+00  0.0000000E+00  0.0000000E+00  0.1172196E-03
    1      -11.693184
    2       -5.139989
    3       -5.139989
    4       -5.139988
    5       -4.807497
    6       -4.807497
    7        1.295892
    8        1.295892
    9        1.295896
   10        2.466329
   11        7.105653
   12        7.105654
   13        7.105676
   14       11.089355
   15       12.665080
   16       12.665084
 
 -0.9000000E-02 -0.9000000E-02 -0.9000000E-02  0.1172196E-03
    1      -11.692688
    2       -5.139952
    3       -5.139909
    4       -5.139909
    5       -4.807506
    6       -4.807506
    7        1.282468
    8        1.295090
    9        1.295090
   10        2.478427
   11        7.104350
   12        7.107080
   13        7.107081
   14       11.095092
   15       12.656966
   16       12.656969
 
 -0.9000000E-02 -0.9000000E-02 -0.8000000E-02  0.1172196E-03
    1      -11.692719
    2       -5.139957
    3       -5.139915
    4       -5.139909
    5       -4.807510
    6       -4.807500
    7        1.283329
    8        1.294999
    9        1.295240
   10        2.477689
   11        7.104343
   12        7.106897
   13        7.107177
   14       11.094738
   15       12.656142
   16       12.658786
 
 -0.9000000E-02 -0.9000000E-02 -0.7000000E-02  0.1172196E-03
    1      -11.692737
    2       -5.139965
    3       -5.139916
    4       -5.139908
    5       -4.807515
    6       -4.807495
    7        1.283949
    8        1.294889
    9        1.295281
   10        2.477247
   11        7.104124
   12        7.106929
   13        7.107308
   14       11.094526
   15       12.655120
   16       12.660410
 
 -0.9000000E-02 -0.9000000E-02 -0.6000000E-02  0.1172196E-03
    1      -11.692743
    2       -5.139975
    3       -5.139912
    4       -5.139905
    5       -4.807520
    6       -4.807489
    7        1.284331
    8        1.294758
    9        1.295212
   10        2.477102
   11        7.103747
   12        7.107120
   13        7.107474
   14       11.094455
   15       12.653894
   16       12.661837
 
 -0.9000000E-02 -0.9000000E-02 -0.5000000E-02  0.1172196E-03
    1      -11.692737
    2       -5.139985
    3       -5.139905
    4       -5.139900
    5       -4.807525
    6       -4.807484
    7        1.284466
    8        1.294607
    9        1.295040
   10        2.477254
   11        7.103284
   12        7.107400
   13        7.107675
   14       11.094526
   15       12.652473
   16       12.663093
 
 -0.9000000E-02 -0.9000000E-02 -0.4000000E-02  0.1172196E-03
    1      -11.692719
    2       -5.139994
    3       -5.139895
    4       -5.139892
    5       -4.807531
    6       -4.807479
    7        1.284334
    8        1.294437
    9        1.294784
   10        2.477702
   11        7.102776
   12        7.107728
   13        7.107912
   14       11.094738
   15       12.650855
   16       12.664097
 
 -0.9000000E-02 -0.9000000E-02 -0.3000000E-02  0.1172196E-03
    1      -11.692688
    2       -5.140002
    3       -5.139885
    4       -5.139883
    5       -4.807536
    6       -4.807475
    7        1.283907
    8        1.294247
    9        1.294477
   10        2.478447
   11        7.102244
   12        7.108082
   13        7.108184
   14       11.095091
   15       12.649048
   16       12.664936
 
 -0.9000000E-02 -0.9000000E-02 -0.2000000E-02  0.1172196E-03
    1      -11.692645
    2       -5.140009
    3       -5.139872
    4       -5.139872
    5       -4.807542
    6       -4.807470
    7        1.283150
    8        1.294038
    9        1.294151
   10        2.479485
   11        7.101699
   12        7.108453
   13        7.108491
   14       11.095586
   15       12.647033
   16       12.665555
 
 -0.9000000E-02 -0.9000000E-02 -0.1000000E-02  0.1172196E-03
    1      -11.692589
    2       -5.140014
    3       -5.139859
    4       -5.139858
    5       -4.807548
    6       -4.807466
    7        1.282034
    8        1.293808
    9        1.293840
   10        2.480817
   11        7.101146
   12        7.108834
   13        7.108834
   14       11.096222
   15       12.644834
   16       12.665984
 
 -0.9000000E-02 -0.9000000E-02  0.0000000E+00  0.1172196E-03
    1      -11.692521
    2       -5.140018
    3       -5.139844
    4       -5.139843
    5       -4.807555
    6       -4.807462
    7        1.280542
    8        1.293559
    9        1.293561
   10        2.482440
   11        7.100585
   12        7.109211
   13        7.109225
   14       11.097000
   15       12.642447
   16       12.666210
 
 -0.9000000E-02 -0.9000000E-02  0.1000000E-02  0.1172196E-03
    1      -11.692441
    2       -5.140021
    3       -5.139826
    4       -5.139826
    5       -4.807561
    6       -4.807458
    7        1.278669
    8        1.293290
    9        1.293322
   10        2.484350
   11        7.100019
   12        7.109624
   13        7.109626
   14       11.097918
   15       12.639870
   16       12.666236
 
 -0.9000000E-02 -0.9000000E-02  0.2000000E-02  0.1172196E-03
    1      -11.692349
    2       -5.140022
    3       -5.139807
    4       -5.139807
    5       -4.807568
    6       -4.807455
    7        1.276424
    8        1.293001
    9        1.293119
   10        2.486545
   11        7.099446
   12        7.110036
   13        7.110072
   14       11.098977
   15       12.637109
   16       12.666058
 
 -0.9000000E-02 -0.9000000E-02  0.3000000E-02  0.1172196E-03
    1      -11.692244
    2       -5.140022
    3       -5.139787
    4       -5.139786
    5       -4.807575
    6       -4.807451
    7        1.273817
    8        1.292693
    9        1.292943
   10        2.489020
   11        7.098866
   12        7.110456
   13        7.110554
   14       11.100177
   15       12.634180
   16       12.665688
 
 -0.9000000E-02 -0.9000000E-02  0.4000000E-02  0.1172196E-03
    1      -11.692127
    2       -5.140020
    3       -5.139766
    4       -5.139763
    5       -4.807582
    6       -4.807448
    7        1.270864
    8        1.292365
    9        1.292785
   10        2.491773
   11        7.098278
   12        7.110887
   13        7.111072
   14       11.101517
   15       12.631042
   16       12.665103
 
 -0.9000000E-02 -0.9000000E-02  0.5000000E-02  0.1172196E-03
    1      -11.691997
    2       -5.140018
    3       -5.139743
    4       -5.139738
    5       -4.807589
    6       -4.807445
    7        1.267576
    8        1.292018
    9        1.292635
   10        2.494798
   11        7.097682
   12        7.111331
   13        7.111625
   14       11.102997
   15       12.627744
   16       12.664328
 
 -0.9000000E-02 -0.9000000E-02  0.6000000E-02  0.1172196E-03
    1      -11.691855
    2       -5.140014
    3       -5.139718
    4       -5.139711
    5       -4.807597
    6       -4.807443
    7        1.263966
    8        1.291650
    9        1.292488
   10        2.498091
   11        7.097075
   12        7.111788
   13        7.112212
   14       11.104618
   15       12.624271
   16       12.663353
 
 -0.9000000E-02 -0.9000000E-02  0.7000000E-02  0.1172196E-03
    1      -11.691701
    2       -5.140008
    3       -5.139692
    4       -5.139682
    5       -4.807605
    6       -4.807440
    7        1.260043
    8        1.291264
    9        1.292337
   10        2.501647
   11        7.096458
   12        7.112261
   13        7.112835
   14       11.106378
   15       12.620628
   16       12.662182
 
 -0.9000000E-02 -0.9000000E-02  0.8000000E-02  0.1172196E-03
    1      -11.691534
    2       -5.140002
    3       -5.139664
    4       -5.139651
    5       -4.807613
    6       -4.807438
    7        1.255818
    8        1.290857
    9        1.292178
   10        2.505460
   11        7.095828
   12        7.112750
   13        7.113492
   14       11.108277
   15       12.616818
   16       12.660816
 
 -0.9000000E-02 -0.9000000E-02  0.9000000E-02  0.1172196E-03
    1      -11.691355
    2       -5.139994
    3       -5.139635
    4       -5.139618
    5       -4.807621
    6       -4.807436
    7        1.251299
    8        1.290432
    9        1.292008
   10        2.509525
   11        7.095185
   12        7.113257
   13        7.114184
   14       11.110315
   15       12.612844
   16       12.659257
 
 -0.9000000E-02 -0.8000000E-02 -0.9000000E-02  0.1172196E-03
    1      -11.692719
    2       -5.139957
    3       -5.139915
    4       -5.139909
    5       -4.807510
    6       -4.807500
    7        1.283329
    8        1.294999
    9        1.295240
   10        2.477689
   11        7.104343
   12        7.106898
   13        7.107176
   14       11.094738
   15       12.656142
   16       12.658786
 
 -0.9000000E-02 -0.8000000E-02 -0.8000000E-02  0.1172196E-03
    1      -11.692754
    2       -5.139959
    3       -5.139923
    4       -5.139914
    5       -4.807509
    6       -4.807500
    7        1.284255
    8        1.295035
    9        1.295321
   10        2.476851
   11        7.104457
   12        7.106729
   13        7.107123
   14       11.094337
   15       12.656854
   16       12.659208
 
 -0.9000000E-02 -0.8000000E-02 -0.7000000E-02  0.1172196E-03
    1      -11.692776
    2       -5.139964
    3       -5.139926
    4       -5.139914
    5       -4.807512
    6       -4.807496
    7        1.284935
    8        1.294963
    9        1.295389
   10        2.476309
   11        7.104364
   12        7.106668
   13        7.107207
   14       11.094078
   15       12.656351
   16       12.660437
 
 -0.9000000E-02 -0.8000000E-02 -0.6000000E-02  0.1172196E-03
    1      -11.692786
    2       -5.139973
    3       -5.139924
    4       -5.139912
    5       -4.807516
    6       -4.807492
    7        1.285373
    8        1.294855
    9        1.295364
   10        2.476063
   11        7.104077
   12        7.106791
   13        7.107340
   14       11.093960
   15       12.655378
   16       12.661746
 
 -0.9000000E-02 -0.8000000E-02 -0.5000000E-02  0.1172196E-03
    1      -11.692784
    2       -5.139982
    3       -5.139918
    4       -5.139908
    5       -4.807521
    6       -4.807487
    7        1.285568
    8        1.294724
    9        1.295236
   10        2.476116
   11        7.103670
   12        7.107034
   13        7.107511
   14       11.093983
   15       12.654141
   16       12.662925
 
 -0.9000000E-02 -0.8000000E-02 -0.4000000E-02  0.1172196E-03
    1      -11.692770
    2       -5.139991
    3       -5.139910
    4       -5.139902
    5       -4.807526
    6       -4.807482
    7        1.285501
    8        1.294573
    9        1.295020
   10        2.476465
   11        7.103204
   12        7.107339
   13        7.107716
   14       11.094148
   15       12.652684
   16       12.663921
 
 -0.9000000E-02 -0.8000000E-02 -0.3000000E-02  0.1172196E-03
    1      -11.692743
    2       -5.139999
    3       -5.139899
    4       -5.139894
    5       -4.807531
    6       -4.807478
    7        1.285146
    8        1.294403
    9        1.294742
   10        2.477112
   11        7.102708
   12        7.107680
   13        7.107953
   14       11.094455
   15       12.651019
   16       12.664740
 
 -0.9000000E-02 -0.8000000E-02 -0.2000000E-02  0.1172196E-03
    1      -11.692704
    2       -5.140005
    3       -5.139887
    4       -5.139884
    5       -4.807537
    6       -4.807474
    7        1.284469
    8        1.294218
    9        1.294434
   10        2.478054
   11        7.102196
   12        7.108044
   13        7.108220
   14       11.094903
   15       12.649152
   16       12.665347
 
 -0.9000000E-02 -0.8000000E-02 -0.1000000E-02  0.1172196E-03
    1      -11.692653
    2       -5.140010
    3       -5.139874
    4       -5.139872
    5       -4.807542
    6       -4.807470
    7        1.283438
    8        1.294021
    9        1.294125
   10        2.479289
   11        7.101674
   12        7.108427
   13        7.108516
   14       11.095492
   15       12.647089
   16       12.665788
 
 -0.9000000E-02 -0.8000000E-02  0.0000000E+00  0.1172196E-03
    1      -11.692589
    2       -5.140014
    3       -5.139859
    4       -5.139858
    5       -4.807548
    6       -4.807466
    7        1.282034
    8        1.293811
    9        1.293838
   10        2.480817
   11        7.101145
   12        7.108821
   13        7.108848
   14       11.096222
   15       12.644837
   16       12.665985
 
 -0.9000000E-02 -0.8000000E-02  0.1000000E-02  0.1172196E-03
    1      -11.692513
    2       -5.140016
    3       -5.139843
    4       -5.139841
    5       -4.807555
    6       -4.807463
    7        1.280251
    8        1.293531
    9        1.293637
   10        2.482634
   11        7.100609
   12        7.109175
   13        7.109263
   14       11.097094
   15       12.642388
   16       12.666002
 
 -0.9000000E-02 -0.8000000E-02  0.2000000E-02  0.1172196E-03
    1      -11.692425
    2       -5.140018
    3       -5.139826
    4       -5.139822
    5       -4.807561
    6       -4.807459
    7        1.278096
    8        1.293239
    9        1.293462
   10        2.484738
   11        7.100067
   12        7.109539
   13        7.109713
   14       11.098106
   15       12.639756
   16       12.665827
 
 -0.9000000E-02 -0.8000000E-02  0.3000000E-02  0.1172196E-03
    1      -11.692324
    2       -5.140017
    3       -5.139808
    4       -5.139802
    5       -4.807568
    6       -4.807456
    7        1.275580
    8        1.292935
    9        1.293305
   10        2.487124
   11        7.099517
   12        7.109920
   13        7.110192
   14       11.099260
   15       12.636937
   16       12.665438
 
 -0.9000000E-02 -0.8000000E-02  0.4000000E-02  0.1172196E-03
    1      -11.692211
    2       -5.140016
    3       -5.139787
    4       -5.139779
    5       -4.807574
    6       -4.807453
    7        1.272718
    8        1.292616
    9        1.293159
   10        2.489788
   11        7.098959
   12        7.110317
   13        7.110701
   14       11.100553
   15       12.633937
   16       12.664858
 
 -0.9000000E-02 -0.8000000E-02  0.5000000E-02  0.1172196E-03
    1      -11.692085
    2       -5.140013
    3       -5.139765
    4       -5.139755
    5       -4.807581
    6       -4.807450
    7        1.269520
    8        1.292280
    9        1.293018
   10        2.492727
   11        7.098392
   12        7.110731
   13        7.111241
   14       11.101987
   15       12.630760
   16       12.664078
 
 -0.9000000E-02 -0.8000000E-02  0.6000000E-02  0.1172196E-03
    1      -11.691948
    2       -5.140009
    3       -5.139742
    4       -5.139729
    5       -4.807589
    6       -4.807448
    7        1.266000
    8        1.291924
    9        1.292876
   10        2.495936
   11        7.097814
   12        7.111162
   13        7.111814
   14       11.103561
   15       12.627405
   16       12.663109
 
 -0.9000000E-02 -0.8000000E-02  0.7000000E-02  0.1172196E-03
    1      -11.691797
    2       -5.140003
    3       -5.139717
    4       -5.139700
    5       -4.807596
    6       -4.807446
    7        1.262167
    8        1.291550
    9        1.292729
   10        2.499410
   11        7.097225
   12        7.111610
   13        7.112420
   14       11.105275
   15       12.623877
   16       12.661926
 
 -0.9000000E-02 -0.8000000E-02  0.8000000E-02  0.1172196E-03
    1      -11.691635
    2       -5.139996
    3       -5.139690
    4       -5.139670
    5       -4.807604
    6       -4.807443
    7        1.258030
    8        1.291157
    9        1.292574
   10        2.503143
   11        7.096622
   12        7.112076
   13        7.113060
   14       11.107129
   15       12.620187
   16       12.660566
 
 -0.9000000E-02 -0.8000000E-02  0.9000000E-02  0.1172196E-03
    1      -11.691460
    2       -5.139988
    3       -5.139662
    4       -5.139638
    5       -4.807611
    6       -4.807442
    7        1.253597
    8        1.290744
    9        1.292406
   10        2.507131
   11        7.096006
   12        7.112561
   13        7.113734
   14       11.109121
   15       12.616320
   16       12.658995
 
 -0.9000000E-02 -0.7000000E-02 -0.9000000E-02  0.1172196E-03
    1      -11.692737
    2       -5.139965
    3       -5.139916
    4       -5.139908
    5       -4.807515
    6       -4.807495
    7        1.283949
    8        1.294888
    9        1.295281
   10        2.477247
   11        7.104123
   12        7.106929
   13        7.107307
   14       11.094526
   15       12.655119
   16       12.660411
 
 -0.9000000E-02 -0.7000000E-02 -0.8000000E-02  0.1172196E-03
    1      -11.692776
    2       -5.139964
    3       -5.139926
    4       -5.139914
    5       -4.807512
    6       -4.807496
    7        1.284935
    8        1.294963
    9        1.295389
   10        2.476309
   11        7.104364
   12        7.106669
   13        7.107207
   14       11.094078
   15       12.656354
   16       12.660438
 
 -0.9000000E-02 -0.7000000E-02 -0.7000000E-02  0.1172196E-03
    1      -11.692803
    2       -5.139965
    3       -5.139934
    4       -5.139916
    5       -4.807512
    6       -4.807496
    7        1.285662
    8        1.294931
    9        1.295494
   10        2.475666
   11        7.104450
   12        7.106466
   13        7.107242
   14       11.093771
   15       12.656768
   16       12.660884
 
 -0.9000000E-02 -0.7000000E-02 -0.6000000E-02  0.1172196E-03
    1      -11.692817
    2       -5.139971
    3       -5.139935
    4       -5.139915
    5       -4.807514
    6       -4.807493
    7        1.286141
    8        1.294855
    9        1.295520
   10        2.475321
   11        7.104321
   12        7.106465
   13        7.107328
   14       11.093606
   15       12.656376
   16       12.661746
 
 -0.9000000E-02 -0.7000000E-02 -0.5000000E-02  0.1172196E-03
    1      -11.692819
    2       -5.139979
    3       -5.139931
    4       -5.139912
    5       -4.807517
    6       -4.807489
    7        1.286373
    8        1.294755
    9        1.295448
   10        2.475273
   11        7.104015
   12        7.106644
   13        7.107449
   14       11.093582
   15       12.655476
   16       12.662715
 
 -0.9000000E-02 -0.7000000E-02 -0.4000000E-02  0.1172196E-03
    1      -11.692809
    2       -5.139987
    3       -5.139923
    4       -5.139908
    5       -4.807522
    6       -4.807485
    7        1.286348
    8        1.294637
    9        1.295281
   10        2.475523
   11        7.103610
   12        7.106929
   13        7.107601
   14       11.093700
   15       12.654251
   16       12.663612
 
 -0.9000000E-02 -0.7000000E-02 -0.3000000E-02  0.1172196E-03
    1      -11.692786
    2       -5.139994
    3       -5.139913
    4       -5.139902
    5       -4.807526
    6       -4.807482
    7        1.286042
    8        1.294506
    9        1.295037
   10        2.476071
   11        7.103158
   12        7.107269
   13        7.107781
   14       11.093960
   15       12.652777
   16       12.664366
 
 -0.9000000E-02 -0.7000000E-02 -0.2000000E-02  0.1172196E-03
    1      -11.692751
    2       -5.140000
    3       -5.139901
    4       -5.139893
    5       -4.807531
    6       -4.807478
    7        1.285426
    8        1.294366
    9        1.294745
   10        2.476915
   11        7.102683
   12        7.107643
   13        7.107989
   14       11.094361
   15       12.651077
   16       12.664977
 
 -0.9000000E-02 -0.7000000E-02 -0.1000000E-02  0.1172196E-03
    1      -11.692704
    2       -5.140005
    3       -5.139888
    4       -5.139883
    5       -4.807537
    6       -4.807474
    7        1.284469
    8        1.294219
    9        1.294433
   10        2.478054
   11        7.102195
   12        7.108041
   13        7.108224
   14       11.094903
   15       12.649151
   16       12.665347
 
 -0.9000000E-02 -0.7000000E-02  0.0000000E+00  0.1172196E-03
    1      -11.692645
    2       -5.140009
    3       -5.139873
    4       -5.139871
    5       -4.807542
    6       -4.807470
    7        1.283149
    8        1.294040
    9        1.294150
   10        2.479485
   11        7.101698
   12        7.108440
   13        7.108506
   14       11.095586
   15       12.647033
   16       12.665555
 
 -0.9000000E-02 -0.7000000E-02  0.1000000E-02  0.1172196E-03
    1      -11.692573
    2       -5.140011
    3       -5.139859
    4       -5.139855
    5       -4.807548
    6       -4.807467
    7        1.281460
    8        1.293758
    9        1.293977
   10        2.481208
   11        7.101193
   12        7.108746
   13        7.108926
   14       11.096411
   15       12.644717
   16       12.665569
 
 -0.9000000E-02 -0.7000000E-02  0.2000000E-02  0.1172196E-03
    1      -11.692489
    2       -5.140012
    3       -5.139843
    4       -5.139836
    5       -4.807554
    6       -4.807464
    7        1.279403
    8        1.293445
    9        1.293842
   10        2.483218
   11        7.100680
   12        7.109049
   13        7.109394
   14       11.097377
   15       12.642210
   16       12.665389
 
 -0.9000000E-02 -0.7000000E-02  0.3000000E-02  0.1172196E-03
    1      -11.692392
    2       -5.140012
    3       -5.139827
    4       -5.139815
    5       -4.807560
    6       -4.807461
    7        1.276988
    8        1.293124
    9        1.293716
   10        2.485512
   11        7.100159
   12        7.109372
   13        7.109889
   14       11.098483
   15       12.639512
   16       12.665007
 
 -0.9000000E-02 -0.7000000E-02  0.4000000E-02  0.1172196E-03
    1      -11.692283
    2       -5.140010
    3       -5.139808
    4       -5.139793
    5       -4.807567
    6       -4.807458
    7        1.274227
    8        1.292795
    9        1.293593
   10        2.488087
   11        7.099629
   12        7.109715
   13        7.110411
   14       11.099730
   15       12.636629
   16       12.664430
 
 -0.9000000E-02 -0.7000000E-02  0.5000000E-02  0.1172196E-03
    1      -11.692162
    2       -5.140007
    3       -5.139788
    4       -5.139769
    5       -4.807574
    6       -4.807455
    7        1.271132
    8        1.292454
    9        1.293467
   10        2.490938
   11        7.099090
   12        7.110079
   13        7.110961
   14       11.101118
   15       12.633567
   16       12.663656
 
 -0.9000000E-02 -0.7000000E-02  0.6000000E-02  0.1172196E-03
    1      -11.692028
    2       -5.140002
    3       -5.139766
    4       -5.139743
    5       -4.807581
    6       -4.807453
    7        1.267712
    8        1.292098
    9        1.293335
   10        2.494061
   11        7.098538
   12        7.110464
   13        7.111540
   14       11.102646
   15       12.630322
   16       12.662685
 
 -0.9000000E-02 -0.7000000E-02  0.7000000E-02  0.1172196E-03
    1      -11.691882
    2       -5.139997
    3       -5.139742
    4       -5.139715
    5       -4.807588
    6       -4.807451
    7        1.263977
    8        1.291727
    9        1.293195
   10        2.497451
   11        7.097975
   12        7.110871
   13        7.112148
   14       11.104313
   15       12.626903
   16       12.661519
 
 -0.9000000E-02 -0.7000000E-02  0.8000000E-02  0.1172196E-03
    1      -11.691723
    2       -5.139990
    3       -5.139716
    4       -5.139685
    5       -4.807595
    6       -4.807449
    7        1.259937
    8        1.291339
    9        1.293043
   10        2.501102
   11        7.097397
   12        7.111299
   13        7.112788
   14       11.106121
   15       12.623313
   16       12.660156
 
 -0.9000000E-02 -0.7000000E-02  0.9000000E-02  0.1172196E-03
    1      -11.691553
    2       -5.139982
    3       -5.139689
    4       -5.139653
    5       -4.807603
    6       -4.807447
    7        1.255599
    8        1.290933
    9        1.292878
   10        2.505009
   11        7.096805
   12        7.111750
   13        7.113459
   14       11.108067
   15       12.619558
   16       12.658606
 
 -0.9000000E-02 -0.6000000E-02 -0.9000000E-02  0.1172196E-03
    1      -11.692743
    2       -5.139975
    3       -5.139911
    4       -5.139905
    5       -4.807520
    6       -4.807489
    7        1.284331
    8        1.294758
    9        1.295212
   10        2.477102
   11        7.103747
   12        7.107120
   13        7.107474
   14       11.094455
   15       12.653895
   16       12.661837
 
 -0.9000000E-02 -0.6000000E-02 -0.8000000E-02  0.1172196E-03
    1      -11.692786
    2       -5.139973
    3       -5.139924
    4       -5.139912
    5       -4.807516
    6       -4.807492
    7        1.285373
    8        1.294855
    9        1.295364
   10        2.476063
   11        7.104076
   12        7.106792
   13        7.107340
   14       11.093960
   15       12.655380
   16       12.661754
 
 -0.9000000E-02 -0.6000000E-02 -0.7000000E-02  0.1172196E-03
    1      -11.692817
    2       -5.139971
    3       -5.139935
    4       -5.139915
    5       -4.807514
    6       -4.807493
    7        1.286141
    8        1.294855
    9        1.295520
   10        2.475321
   11        7.104321
   12        7.106465
   13        7.107328
   14       11.093606
   15       12.656375
   16       12.661745
 
 -0.9000000E-02 -0.6000000E-02 -0.6000000E-02  0.1172196E-03
    1      -11.692836
    2       -5.139971
    3       -5.139941
    4       -5.139916
    5       -4.807514
    6       -4.807493
    7        1.286647
    8        1.294815
    9        1.295609
   10        2.474875
   11        7.104407
   12        7.106290
   13        7.107360
   14       11.093394
   15       12.656718
   16       12.662008
 
 -0.9000000E-02 -0.6000000E-02 -0.5000000E-02  0.1172196E-03
    1      -11.692842
    2       -5.139975
    3       -5.139940
    4       -5.139915
    5       -4.807515
    6       -4.807491
    7        1.286900
    8        1.294753
    9        1.295602
   10        2.474727
   11        7.104275
   12        7.106338
   13        7.107425
   14       11.093323
   15       12.656370
   16       12.662551
 
 -0.9000000E-02 -0.6000000E-02 -0.4000000E-02  0.1172196E-03
    1      -11.692836
    2       -5.139982
    3       -5.139934
    4       -5.139912
    5       -4.807518
    6       -4.807488
    7        1.286894
    8        1.294679
    9        1.295495
   10        2.474877
   11        7.103975
   12        7.106565
   13        7.107518
   14       11.093394
   15       12.655509
   16       12.663214
 
 -0.9000000E-02 -0.6000000E-02 -0.3000000E-02  0.1172196E-03
    1      -11.692817
    2       -5.139988
    3       -5.139925
    4       -5.139908
    5       -4.807522
    6       -4.807485
    7        1.286616
    8        1.294596
    9        1.295299
   10        2.475325
   11        7.103587
   12        7.106890
   13        7.107638
   14       11.093606
   15       12.654283
   16       12.663846
 
 -0.9000000E-02 -0.6000000E-02 -0.2000000E-02  0.1172196E-03
    1      -11.692786
    2       -5.139994
    3       -5.139913
    4       -5.139901
    5       -4.807526
    6       -4.807482
    7        1.286042
    8        1.294507
    9        1.295037
   10        2.476071
   11        7.103157
   12        7.107267
   13        7.107784
   14       11.093960
   15       12.652777
   16       12.664365
 
 -0.9000000E-02 -0.6000000E-02 -0.1000000E-02  0.1172196E-03
    1      -11.692743
    2       -5.139999
    3       -5.139900
    4       -5.139893
    5       -4.807531
    6       -4.807478
    7        1.285145
    8        1.294405
    9        1.294741
   10        2.477112
   11        7.102706
   12        7.107676
   13        7.107959
   14       11.094455
   15       12.651020
   16       12.664744
 
 -0.9000000E-02 -0.6000000E-02  0.0000000E+00  0.1172196E-03
    1      -11.692688
    2       -5.140002
    3       -5.139885
    4       -5.139882
    5       -4.807536
    6       -4.807475
    7        1.283906
    8        1.294250
    9        1.294476
   10        2.478447
   11        7.102242
   12        7.108071
   13        7.108198
   14       11.095091
   15       12.649041
   16       12.664931
 
 -0.9000000E-02 -0.6000000E-02  0.1000000E-02  0.1172196E-03
    1      -11.692620
    2       -5.140004
    3       -5.139872
    4       -5.139866
    5       -4.807542
    6       -4.807472
    7        1.282311
    8        1.293973
    9        1.294323
   10        2.480073
   11        7.101767
   12        7.108336
   13        7.108616
   14       11.095869
   15       12.646854
   16       12.664944
 
 -0.9000000E-02 -0.6000000E-02  0.2000000E-02  0.1172196E-03
    1      -11.692540
    2       -5.140005
    3       -5.139859
    4       -5.139848
    5       -4.807548
    6       -4.807469
    7        1.280358
    8        1.293643
    9        1.294220
   10        2.481989
   11        7.101283
   12        7.108582
   13        7.109100
   14       11.096788
   15       12.644466
   16       12.664762
 
 -0.9000000E-02 -0.6000000E-02  0.3000000E-02  0.1172196E-03
    1      -11.692447
    2       -5.140004
    3       -5.139844
    4       -5.139827
    5       -4.807554
    6       -4.807466
    7        1.278053
    8        1.293300
    9        1.294123
   10        2.484190
   11        7.100790
   12        7.108847
   13        7.109613
   14       11.097848
   15       12.641883
   16       12.664395
 
 -0.9000000E-02 -0.6000000E-02  0.4000000E-02  0.1172196E-03
    1      -11.692343
    2       -5.140003
    3       -5.139827
    4       -5.139805
    5       -4.807560
    6       -4.807463
    7        1.275404
    8        1.292951
    9        1.294024
   10        2.486673
   11        7.100286
   12        7.109134